written on 01Apr2026 at 15:00:28 
          3
          3
    1    1    1
    0    0    0    1    1   -0.277000    0.000000
    0    0    0    2    1    0.000000    0.000000
    0    0    0    3    1    0.000000    0.000000
    0    0    0    1    2    0.000000    0.000000
    0    0    0    2    2   -0.203000    0.000000
    0    0    0    3    2    0.000000    0.000000
    0    0    0    1    3    0.000000    0.000000
    0    0    0    2    3    0.000000    0.000000
    0    0    0    3    3   -0.720000    0.000000
    1    0    0    1    1    0.187000    0.000000
    1    0    0    2    1    0.054000    0.000000
    1    0    0    3    1    0.020000    0.000000
    1    0    0    1    2   -0.054000    0.000000
    1    0    0    2    2    0.351000    0.000000
    1    0    0    3    2    0.349000    0.000000
    1    0    0    1    3    0.020000    0.000000
    1    0    0    2    3   -0.349000    0.000000
    1    0    0    3    3   -0.433000    0.000000
   -1    0    0    1    1    0.187000    0.000000
   -1    0    0    2    1   -0.054000    0.000000
   -1    0    0    3    1    0.020000    0.000000
   -1    0    0    1    2    0.054000    0.000000
   -1    0    0    2    2    0.351000    0.000000
   -1    0    0    3    2   -0.349000    0.000000
   -1    0    0    1    3    0.020000    0.000000
   -1    0    0    2    3    0.349000    0.000000
   -1    0    0    3    3   -0.433000    0.000000